lammps cell input
420 atoms
1200 bonds
800 angles
1200 dihedrals

1 atom types
120 bond types
80 angle types
120 dihedral types
0 30 xlo xhi
0 30 ylo yhi
0 80 zlo zhi

Masses

1 2.14286

Bond Coeffs

1 0.000158709 2.18162 0.4545 0.000789088
 2 0.000158709 1.67835 0.4545 0.000467018
 3 0.000158709 2.2273 0.4545 0.000822475
 4 0.000158709 1.67835 0.4545 0.000467018
 5 0.000158709 2.18162 0.4545 0.000789088
 6 0.000158709 2.18162 0.4545 0.000789088
 7 0.000158709 1.67835 0.4545 0.000467018
 8 0.000158709 2.2273 0.4545 0.000822475
 9 0.000158709 1.67835 0.4545 0.000467018
 10 0.000158709 2.18162 0.4545 0.000789088
 11 0.000158709 2.18162 0.4545 0.000789088
 12 0.000158709 1.67835 0.4545 0.000467018
 13 0.000158709 2.2273 0.4545 0.000822475
 14 0.000158709 1.67835 0.4545 0.000467018
 15 0.000158709 2.18162 0.4545 0.000789088
 16 0.000158709 2.18162 0.4545 0.000789088
 17 0.000158709 1.67835 0.4545 0.000467018
 18 0.000158709 2.2273 0.4545 0.000822475
 19 0.000158709 1.67835 0.4545 0.000467018
 20 0.000158709 2.18162 0.4545 0.000789088
 21 0.000158709 2.18613 0.4545 0.000792354
 22 0.000158709 1.39298 0.4545 0.000321705
 23 0.000158709 1.39298 0.4545 0.000321705
 24 0.000158709 1.92704 0.4545 0.000615672
 25 0.000158709 1.92704 0.4545 0.000615672
 26 0.000158709 2.18613 0.4545 0.000792354
 27 0.000158709 1.39298 0.4545 0.000321705
 28 0.000158709 1.39298 0.4545 0.000321705
 29 0.000158709 1.92704 0.4545 0.000615672
 30 0.000158709 1.92704 0.4545 0.000615672
 31 0.000158709 1.92704 0.4545 0.000615672
 32 0.000158709 1.92704 0.4545 0.000615672
 33 0.000158709 1.39298 0.4545 0.000321705
 34 0.000158709 1.39298 0.4545 0.000321705
 35 0.000158709 2.18613 0.4545 0.000792354
 36 0.000158709 1.92704 0.4545 0.000615672
 37 0.000158709 1.92704 0.4545 0.000615672
 38 0.000158709 1.39298 0.4545 0.000321705
 39 0.000158709 1.39298 0.4545 0.000321705
 40 0.000158709 2.18613 0.4545 0.000792354
 41 0.000158709 1.87304 0.4545 0.000581647
 42 0.000158709 1.87304 0.4545 0.000581647
 43 0.000158709 2.05535 0.4545 0.000700389
 44 0.000158709 2.05535 0.4545 0.000700389
 45 0.000158709 1.27236 0.4545 0.000268404
 46 0.000158709 1.27236 0.4545 0.000268404
 47 0.000158709 2.05535 0.4545 0.000700389
 48 0.000158709 2.05535 0.4545 0.000700389
 49 0.000158709 1.87304 0.4545 0.000581647
 50 0.000158709 1.87304 0.4545 0.000581647
 51 0.000158709 1.27236 0.4545 0.000268404
 52 0.000158709 2.05535 0.4545 0.000700389
 53 0.000158709 2.05535 0.4545 0.000700389
 54 0.000158709 1.87304 0.4545 0.000581647
 55 0.000158709 1.87304 0.4545 0.000581647
 56 0.000158709 1.87304 0.4545 0.000581647
 57 0.000158709 1.87304 0.4545 0.000581647
 58 0.000158709 2.05535 0.4545 0.000700389
 59 0.000158709 2.05535 0.4545 0.000700389
 60 0.000158709 1.27236 0.4545 0.000268404
 61 0.000158709 2.24628 0.4545 0.000836555
 62 0.000158709 2.24628 0.4545 0.000836555
 63 0.000158709 2.24628 0.4545 0.000836555
 64 0.000158709 2.24628 0.4545 0.000836555
 65 0.000158709 1.35968 0.4545 0.000306508
 66 0.000158709 1.55656 0.4545 0.000401698
 67 0.000158709 2.38455 0.4545 0.000942712
 68 0.000158709 1.55656 0.4545 0.000401698
 69 0.000158709 2.38455 0.4545 0.000942712
 70 0.000158709 1.35968 0.4545 0.000306508
 71 0.000158709 1.55656 0.4545 0.000401698
 72 0.000158709 2.38455 0.4545 0.000942712
 73 0.000158709 1.55656 0.4545 0.000401698
 74 0.000158709 2.38455 0.4545 0.000942712
 75 0.000158709 2.47214 0.4545 0.00101324
 76 0.000158709 2.14693 0.4545 0.000764188
 77 0.000158709 2.49119 0.4545 0.00102891
 78 0.000158709 2.47214 0.4545 0.00101324
 79 0.000158709 2.14693 0.4545 0.000764188
 80 0.000158709 2.49119 0.4545 0.00102891
 81 0.000158709 2.14693 0.4545 0.000764188
 82 0.000158709 2.49119 0.4545 0.00102891
 83 0.000158709 2.14693 0.4545 0.000764188
 84 0.000158709 2.49119 0.4545 0.00102891
 85 0.000158709 1.80906 0.4545 0.000542588
 86 0.000158709 2.47214 0.4545 0.00101324
 87 0.000158709 1.80906 0.4545 0.000542588
 88 0.000158709 2.47214 0.4545 0.00101324
 89 0.000158709 1.80906 0.4545 0.000542588
 90 0.000158709 2.47214 0.4545 0.00101324
 91 0.000158709 1.80906 0.4545 0.000542588
 92 0.000158709 2.47214 0.4545 0.00101324
 93 0.000158709 1.80906 0.4545 0.000542588
 94 0.000158709 1.80906 0.4545 0.000542588
 95 0.000158709 2.49119 0.4545 0.00102891
 96 0.000158709 2.49119 0.4545 0.00102891
 97 0.000158709 2.49119 0.4545 0.00102891
 98 0.000158709 2.49119 0.4545 0.00102891
 99 0.000158709 1.80906 0.4545 0.000542588
 100 0.000158709 1.80906 0.4545 0.000542588
 101 0.000158709 2.14693 0.4545 0.000764188
 102 0.000158709 2.38455 0.4545 0.000942712
 103 0.000158709 2.14693 0.4545 0.000764188
 104 0.000158709 2.38455 0.4545 0.000942712
 105 0.000158709 2.14693 0.4545 0.000764188
 106 0.000158709 2.38455 0.4545 0.000942712
 107 0.000158709 2.14693 0.4545 0.000764188
 108 0.000158709 2.38455 0.4545 0.000942712
 109 0.000158709 2.47214 0.4545 0.00101324
 110 0.000158709 1.55656 0.4545 0.000401698
 111 0.000158709 2.47214 0.4545 0.00101324
 112 0.000158709 1.55656 0.4545 0.000401698
 113 0.000158709 1.55656 0.4545 0.000401698
 114 0.000158709 1.55656 0.4545 0.000401698
 115 0.000158709 1.35968 0.4545 0.000306508
 116 0.000158709 2.24628 0.4545 0.000836555
 117 0.000158709 2.24628 0.4545 0.000836555
 118 0.000158709 1.35968 0.4545 0.000306508
 119 0.000158709 2.24628 0.4545 0.000836555
 120 0.000158709 2.24628 0.4545 0.000836555
 
Angle Coeffs

1 0 0 0.00583333 127.396 6.11111e-05 88.0046 0.00583333 1.39391
2 0 0 0.00583333 127.396 6.11111e-05 88.0046 0.00583333 1.39391
3 0 0 0.00583333 127.396 6.11111e-05 88.0046 0.00583333 1.73948
4 0 0 0.00583333 127.396 6.11111e-05 88.0046 0.00583333 1.73948
5 0 0 0.00583333 127.396 6.11111e-05 88.0046 0.00583333 1.25531
6 0 0 0.00583333 127.396 6.11111e-05 88.0046 0.00583333 1.39391
7 0 0 0.00583333 127.396 6.11111e-05 88.0046 0.00583333 1.25531
8 0 0 0.00583333 127.396 6.11111e-05 88.0046 0.00583333 1.29228
9 0 0 0.00583333 127.396 6.11111e-05 88.0046 0.00583333 1.29228
10 0 0 0.00583333 127.396 6.11111e-05 88.0046 0.00583333 1.34215
11 0 0 0.00583333 127.396 6.11111e-05 88.0046 0.00583333 1.34215
12 0 0 0.00583333 127.396 6.11111e-05 88.0046 0.00583333 2.26514
13 0 0 0.00583333 127.396 6.11111e-05 88.0046 0.00583333 1.25531
14 0 0 0.00583333 127.396 6.11111e-05 88.0046 0.00583333 1.39391
15 0 0 0.00583333 127.396 6.11111e-05 88.0046 0.00583333 1.25531
16 0 0 0.00583333 127.396 6.11111e-05 88.0046 0.00583333 1.67377
17 0 0 0.00583333 127.396 6.11111e-05 88.0046 0.00583333 2.26514
18 0 0 0.00583333 127.396 6.11111e-05 88.0046 0.00583333 1.29228
19 0 0 0.00583333 127.396 6.11111e-05 88.0046 0.00583333 1.29228
20 0 0 0.00583333 127.396 6.11111e-05 88.0046 0.00583333 1.67377
21 0 0 0.00583333 127.396 6.11111e-05 88.0046 0.00583333 1.34215
22 0 0 0.00583333 127.396 6.11111e-05 88.0046 0.00583333 1.67377
23 0 0 0.00583333 127.396 6.11111e-05 88.0046 0.00583333 2.26514
24 0 0 0.00583333 127.396 6.11111e-05 88.0046 0.00583333 2.26514
25 0 0 0.00583333 127.396 6.11111e-05 88.0046 0.00583333 1.40336
26 0 0 0.00583333 127.396 6.11111e-05 88.0046 0.00583333 1.67377
27 0 0 0.00583333 127.396 6.11111e-05 88.0046 0.00583333 1.25531
28 0 0 0.00583333 127.396 6.11111e-05 88.0046 0.00583333 1.22585
29 0 0 0.00583333 127.396 6.11111e-05 88.0046 0.00583333 1.29228
30 0 0 0.00583333 127.396 6.11111e-05 88.0046 0.00583333 1.39391
31 0 0 0.00583333 127.396 6.11111e-05 88.0046 0.00583333 1.67377
32 0 0 0.00583333 127.396 6.11111e-05 88.0046 0.00583333 1.73948
33 0 0 0.00583333 127.396 6.11111e-05 88.0046 0.00583333 1.25531
34 0 0 0.00583333 127.396 6.11111e-05 88.0046 0.00583333 1.34215
35 0 0 0.00583333 127.396 6.11111e-05 88.0046 0.00583333 1.40336
36 0 0 0.00583333 127.396 6.11111e-05 88.0046 0.00583333 1.39391
37 0 0 0.00583333 127.396 6.11111e-05 88.0046 0.00583333 2.26514
38 0 0 0.00583333 127.396 6.11111e-05 88.0046 0.00583333 1.22585
39 0 0 0.00583333 127.396 6.11111e-05 88.0046 0.00583333 1.29228
40 0 0 0.00583333 127.396 6.11111e-05 88.0046 0.00583333 1.34215
41 0 0 0.00583333 127.396 6.11111e-05 88.0046 0.00583333 1.67377
42 0 0 0.00583333 127.396 6.11111e-05 88.0046 0.00583333 1.34215
43 0 0 0.00583333 127.396 6.11111e-05 88.0046 0.00583333 2.26514
44 0 0 0.00583333 127.396 6.11111e-05 88.0046 0.00583333 2.26514
45 0 0 0.00583333 127.396 6.11111e-05 88.0046 0.00583333 1.25531
46 0 0 0.00583333 127.396 6.11111e-05 88.0046 0.00583333 1.34215
47 0 0 0.00583333 127.396 6.11111e-05 88.0046 0.00583333 1.40336
48 0 0 0.00583333 127.396 6.11111e-05 88.0046 0.00583333 1.29228
49 0 0 0.00583333 127.396 6.11111e-05 88.0046 0.00583333 1.22585
50 0 0 0.00583333 127.396 6.11111e-05 88.0046 0.00583333 1.67377
51 0 0 0.00583333 127.396 6.11111e-05 88.0046 0.00583333 1.39391
52 0 0 0.00583333 127.396 6.11111e-05 88.0046 0.00583333 2.26514
53 0 0 0.00583333 127.396 6.11111e-05 88.0046 0.00583333 1.40336
54 0 0 0.00583333 127.396 6.11111e-05 88.0046 0.00583333 1.67377
55 0 0 0.00583333 127.396 6.11111e-05 88.0046 0.00583333 1.25531
56 0 0 0.00583333 127.396 6.11111e-05 88.0046 0.00583333 1.34215
57 0 0 0.00583333 127.396 6.11111e-05 88.0046 0.00583333 1.73948
58 0 0 0.00583333 127.396 6.11111e-05 88.0046 0.00583333 1.29228
59 0 0 0.00583333 127.396 6.11111e-05 88.0046 0.00583333 1.22585
60 0 0 0.00583333 127.396 6.11111e-05 88.0046 0.00583333 1.39391
61 0 0 0.00583333 127.396 6.11111e-05 88.0046 0.00583333 1.63667
62 0 0 0.00583333 127.396 6.11111e-05 88.0046 0.00583333 1.63667
63 0 0 0.00583333 127.396 6.11111e-05 88.0046 0.00583333 2.6735
64 0 0 0.00583333 127.396 6.11111e-05 88.0046 0.00583333 2.6735
65 0 0 0.00583333 127.396 6.11111e-05 88.0046 0.00583333 1.63274
66 0 0 0.00583333 127.396 6.11111e-05 88.0046 0.00583333 1.63667
67 0 0 0.00583333 127.396 6.11111e-05 88.0046 0.00583333 1.63274
68 0 0 0.00583333 127.396 6.11111e-05 88.0046 0.00583333 1.4555
69 0 0 0.00583333 127.396 6.11111e-05 88.0046 0.00583333 1.4555
70 0 0 0.00583333 127.396 6.11111e-05 88.0046 0.00583333 1.63667
71 0 0 0.00583333 127.396 6.11111e-05 88.0046 0.00583333 1.63667
72 0 0 0.00583333 127.396 6.11111e-05 88.0046 0.00583333 2.6735
73 0 0 0.00583333 127.396 6.11111e-05 88.0046 0.00583333 1.63274
74 0 0 0.00583333 127.396 6.11111e-05 88.0046 0.00583333 1.63667
75 0 0 0.00583333 127.396 6.11111e-05 88.0046 0.00583333 1.63274
76 0 0 0.00583333 127.396 6.11111e-05 88.0046 0.00583333 1.63667
77 0 0 0.00583333 127.396 6.11111e-05 88.0046 0.00583333 2.6735
78 0 0 0.00583333 127.396 6.11111e-05 88.0046 0.00583333 1.4555
79 0 0 0.00583333 127.396 6.11111e-05 88.0046 0.00583333 1.4555
80 0 0 0.00583333 127.396 6.11111e-05 88.0046 0.00583333 1.63667

Dihedral Coeffs

1 6.38889e-06 205
2 6.38889e-06 179
3 6.38889e-06 159
4 6.38889e-06 179
5 6.38889e-06 205
6 6.38889e-06 205
7 6.38889e-06 179
8 6.38889e-06 159
9 6.38889e-06 179
10 6.38889e-06 205
11 6.38889e-06 205
12 6.38889e-06 179
13 6.38889e-06 159
14 6.38889e-06 179
15 6.38889e-06 205
16 6.38889e-06 205
17 6.38889e-06 179
18 6.38889e-06 159
19 6.38889e-06 179
20 6.38889e-06 205
21 6.38889e-06 220
22 6.38889e-06 203
23 6.38889e-06 203
24 6.38889e-06 214
25 6.38889e-06 214
26 6.38889e-06 220
27 6.38889e-06 203
28 6.38889e-06 203
29 6.38889e-06 214
30 6.38889e-06 214
31 6.38889e-06 214
32 6.38889e-06 214
33 6.38889e-06 203
34 6.38889e-06 203
35 6.38889e-06 220
36 6.38889e-06 214
37 6.38889e-06 214
38 6.38889e-06 203
39 6.38889e-06 203
40 6.38889e-06 220
41 6.38889e-06 198
42 6.38889e-06 198
43 6.38889e-06 224
44 6.38889e-06 224
45 6.38889e-06 200
46 6.38889e-06 200
47 6.38889e-06 224
48 6.38889e-06 224
49 6.38889e-06 198
50 6.38889e-06 198
51 6.38889e-06 200
52 6.38889e-06 224
53 6.38889e-06 224
54 6.38889e-06 198
55 6.38889e-06 198
56 6.38889e-06 198
57 6.38889e-06 198
58 6.38889e-06 224
59 6.38889e-06 224
60 6.38889e-06 200
61 6.38889e-06 209
62 6.38889e-06 209
63 6.38889e-06 209
64 6.38889e-06 209
65 6.38889e-06 198
66 6.38889e-06 177
67 6.38889e-06 219
68 6.38889e-06 177
69 6.38889e-06 219
70 6.38889e-06 198
71 6.38889e-06 177
72 6.38889e-06 219
73 6.38889e-06 177
74 6.38889e-06 219
75 6.38889e-06 207
76 6.38889e-06 200
77 6.38889e-06 158
78 6.38889e-06 207
79 6.38889e-06 200
80 6.38889e-06 158
81 6.38889e-06 200
82 6.38889e-06 158
83 6.38889e-06 200
84 6.38889e-06 158
85 6.38889e-06 201
86 6.38889e-06 231
87 6.38889e-06 201
88 6.38889e-06 231
89 6.38889e-06 201
90 6.38889e-06 231
91 6.38889e-06 201
92 6.38889e-06 231
93 6.38889e-06 201
94 6.38889e-06 201
95 6.38889e-06 158
96 6.38889e-06 158
97 6.38889e-06 158
98 6.38889e-06 158
99 6.38889e-06 201
100 6.38889e-06 201
101 6.38889e-06 200
102 6.38889e-06 219
103 6.38889e-06 200
104 6.38889e-06 219
105 6.38889e-06 200
106 6.38889e-06 219
107 6.38889e-06 200
108 6.38889e-06 219
109 6.38889e-06 207
110 6.38889e-06 177
111 6.38889e-06 207
112 6.38889e-06 177
113 6.38889e-06 177
114 6.38889e-06 177
115 6.38889e-06 198
116 6.38889e-06 209
117 6.38889e-06 209
118 6.38889e-06 198
119 6.38889e-06 209
120 6.38889e-06 209

Atoms

1 1 1 11 13.1029 24.6483
2 1 1 11 13.1029 22.3517
3 1 1 11 8.89708 22.3517
4 1 1 11 8.89708 24.6483
5 1 1 13.1029 14.4026 23.5
6 1 1 13.1029 7.5974 23.5
7 1 1 8.89708 7.5974 23.5
8 1 1 8.89708 14.4026 23.5
9 1 1 14.4026 11 24.6234
10 1 1 7.5974 11 24.6234
11 1 1 7.5974 11 22.3766
12 1 1 14.4026 11 22.3766
13 1 1 7 11 23.5
14 1 1 7.76393 9 22.8202
15 1 1 7.76393 9 24.1798
16 1 1 7.76393 13 22.8202
17 1 1 7.76393 13 24.1798
18 1 1 9 9.76393 22.2621
19 1 1 9 9.76393 24.7379
20 1 1 9 12.2361 22.2621
21 1 1 9 12.2361 24.7379
22 1 1 9.76393 7.76393 22.4224
23 1 1 9.76393 7.76393 24.5776
24 1 1 9.76393 14.2361 22.4224
25 1 1 9.76393 14.2361 24.5776
26 1 1 11 7 23.5
27 1 1 11 11 23.0856
28 1 1 11 11 23.9144
29 1 1 11 15 23.5
30 1 1 12.2361 7.76393 22.4224
31 1 1 12.2361 7.76393 24.5776
32 1 1 12.2361 14.2361 22.4224
33 1 1 12.2361 14.2361 24.5776
34 1 1 13 9.76393 22.2621
35 1 1 13 9.76393 24.7379
36 1 1 13 12.2361 22.2621
37 1 1 13 12.2361 24.7379
38 1 1 14.2361 9 22.8202
39 1 1 14.2361 9 24.1798
40 1 1 14.2361 13 22.8202
41 1 1 14.2361 13 24.1798
42 1 1 15 11 23.5
43 2 1 11 23.1029 24.6483
44 2 1 11 23.1029 22.3517
45 2 1 11 18.8971 22.3517
46 2 1 11 18.8971 24.6483
47 2 1 13.1029 24.4026 23.5
48 2 1 13.1029 17.5974 23.5
49 2 1 8.89708 17.5974 23.5
50 2 1 8.89708 24.4026 23.5
51 2 1 14.4026 21 24.6234
52 2 1 7.5974 21 24.6234
53 2 1 7.5974 21 22.3766
54 2 1 14.4026 21 22.3766
55 2 1 7 21 23.5
56 2 1 7.76393 19 22.8202
57 2 1 7.76393 19 24.1798
58 2 1 7.76393 23 22.8202
59 2 1 7.76393 23 24.1798
60 2 1 9 19.7639 22.2621
61 2 1 9 19.7639 24.7379
62 2 1 9 22.2361 22.2621
63 2 1 9 22.2361 24.7379
64 2 1 9.76393 17.7639 22.4224
65 2 1 9.76393 17.7639 24.5776
66 2 1 9.76393 24.2361 22.4224
67 2 1 9.76393 24.2361 24.5776
68 2 1 11 17 23.5
69 2 1 11 21 23.0856
70 2 1 11 21 23.9144
71 2 1 11 25 23.5
72 2 1 12.2361 17.7639 22.4224
73 2 1 12.2361 17.7639 24.5776
74 2 1 12.2361 24.2361 22.4224
75 2 1 12.2361 24.2361 24.5776
76 2 1 13 19.7639 22.2621
77 2 1 13 19.7639 24.7379
78 2 1 13 22.2361 22.2621
79 2 1 13 22.2361 24.7379
80 2 1 14.2361 19 22.8202
81 2 1 14.2361 19 24.1798
82 2 1 14.2361 23 22.8202
83 2 1 14.2361 23 24.1798
84 2 1 15 21 23.5
85 3 1 21 13.1029 24.6483
86 3 1 21 13.1029 22.3517
87 3 1 21 8.89708 22.3517
88 3 1 21 8.89708 24.6483
89 3 1 23.1029 14.4026 23.5
90 3 1 23.1029 7.5974 23.5
91 3 1 18.8971 7.5974 23.5
92 3 1 18.8971 14.4026 23.5
93 3 1 24.4026 11 24.6234
94 3 1 17.5974 11 24.6234
95 3 1 17.5974 11 22.3766
96 3 1 24.4026 11 22.3766
97 3 1 17 11 23.5
98 3 1 17.7639 9 22.8202
99 3 1 17.7639 9 24.1798
100 3 1 17.7639 13 22.8202
101 3 1 17.7639 13 24.1798
102 3 1 19 9.76393 22.2621
103 3 1 19 9.76393 24.7379
104 3 1 19 12.2361 22.2621
105 3 1 19 12.2361 24.7379
106 3 1 19.7639 7.76393 22.4224
107 3 1 19.7639 7.76393 24.5776
108 3 1 19.7639 14.2361 22.4224
109 3 1 19.7639 14.2361 24.5776
110 3 1 21 7 23.5
111 3 1 21 11 23.0856
112 3 1 21 11 23.9144
113 3 1 21 15 23.5
114 3 1 22.2361 7.76393 22.4224
115 3 1 22.2361 7.76393 24.5776
116 3 1 22.2361 14.2361 22.4224
117 3 1 22.2361 14.2361 24.5776
118 3 1 23 9.76393 22.2621
119 3 1 23 9.76393 24.7379
120 3 1 23 12.2361 22.2621
121 3 1 23 12.2361 24.7379
122 3 1 24.2361 9 22.8202
123 3 1 24.2361 9 24.1798
124 3 1 24.2361 13 22.8202
125 3 1 24.2361 13 24.1798
126 3 1 25 11 23.5
127 4 1 21 23.1029 24.6483
128 4 1 21 23.1029 22.3517
129 4 1 21 18.8971 22.3517
130 4 1 21 18.8971 24.6483
131 4 1 23.1029 24.4026 23.5
132 4 1 23.1029 17.5974 23.5
133 4 1 18.8971 17.5974 23.5
134 4 1 18.8971 24.4026 23.5
135 4 1 24.4026 21 24.6234
136 4 1 17.5974 21 24.6234
137 4 1 17.5974 21 22.3766
138 4 1 24.4026 21 22.3766
139 4 1 17 21 23.5
140 4 1 17.7639 19 22.8202
141 4 1 17.7639 19 24.1798
142 4 1 17.7639 23 22.8202
143 4 1 17.7639 23 24.1798
144 4 1 19 19.7639 22.2621
145 4 1 19 19.7639 24.7379
146 4 1 19 22.2361 22.2621
147 4 1 19 22.2361 24.7379
148 4 1 19.7639 17.7639 22.4224
149 4 1 19.7639 17.7639 24.5776
150 4 1 19.7639 24.2361 22.4224
151 4 1 19.7639 24.2361 24.5776
152 4 1 21 17 23.5
153 4 1 21 21 23.0856
154 4 1 21 21 23.9144
155 4 1 21 25 23.5
156 4 1 22.2361 17.7639 22.4224
157 4 1 22.2361 17.7639 24.5776
158 4 1 22.2361 24.2361 22.4224
159 4 1 22.2361 24.2361 24.5776
160 4 1 23 19.7639 22.2621
161 4 1 23 19.7639 24.7379
162 4 1 23 22.2361 22.2621
163 4 1 23 22.2361 24.7379
164 4 1 24.2361 19 22.8202
165 4 1 24.2361 19 24.1798
166 4 1 24.2361 23 22.8202
167 4 1 24.2361 23 24.1798
168 4 1 25 21 23.5
169 5 1 16 18.1029 19.6483
170 5 1 16 18.1029 17.3517
171 5 1 16 13.8971 17.3517
172 5 1 16 13.8971 19.6483
173 5 1 18.1029 19.4026 18.5
174 5 1 18.1029 12.5974 18.5
175 5 1 13.8971 12.5974 18.5
176 5 1 13.8971 19.4026 18.5
177 5 1 19.4026 16 19.6234
178 5 1 12.5974 16 19.6234
179 5 1 12.5974 16 17.3766
180 5 1 19.4026 16 17.3766
181 5 1 12 16 18.5
182 5 1 12.7639 14 17.8202
183 5 1 12.7639 14 19.1798
184 5 1 12.7639 18 17.8202
185 5 1 12.7639 18 19.1798
186 5 1 14 14.7639 17.2621
187 5 1 14 14.7639 19.7379
188 5 1 14 17.2361 17.2621
189 5 1 14 17.2361 19.7379
190 5 1 14.7639 12.7639 17.4224
191 5 1 14.7639 12.7639 19.5776
192 5 1 14.7639 19.2361 17.4224
193 5 1 14.7639 19.2361 19.5776
194 5 1 16 12 18.5
195 5 1 16 16 18.0856
196 5 1 16 16 18.9144
197 5 1 16 20 18.5
198 5 1 17.2361 12.7639 17.4224
199 5 1 17.2361 12.7639 19.5776
200 5 1 17.2361 19.2361 17.4224
201 5 1 17.2361 19.2361 19.5776
202 5 1 18 14.7639 17.2621
203 5 1 18 14.7639 19.7379
204 5 1 18 17.2361 17.2621
205 5 1 18 17.2361 19.7379
206 5 1 19.2361 14 17.8202
207 5 1 19.2361 14 19.1798
208 5 1 19.2361 18 17.8202
209 5 1 19.2361 18 19.1798
210 5 1 20 16 18.5
211 6 1 16 18.1029 29.6483
212 6 1 16 18.1029 27.3517
213 6 1 16 13.8971 27.3517
214 6 1 16 13.8971 29.6483
215 6 1 18.1029 19.4026 28.5
216 6 1 18.1029 12.5974 28.5
217 6 1 13.8971 12.5974 28.5
218 6 1 13.8971 19.4026 28.5
219 6 1 19.4026 16 29.6234
220 6 1 12.5974 16 29.6234
221 6 1 12.5974 16 27.3766
222 6 1 19.4026 16 27.3766
223 6 1 12 16 28.5
224 6 1 12.7639 14 27.8202
225 6 1 12.7639 14 29.1798
226 6 1 12.7639 18 27.8202
227 6 1 12.7639 18 29.1798
228 6 1 14 14.7639 27.2621
229 6 1 14 14.7639 29.7379
230 6 1 14 17.2361 27.2621
231 6 1 14 17.2361 29.7379
232 6 1 14.7639 12.7639 27.4224
233 6 1 14.7639 12.7639 29.5776
234 6 1 14.7639 19.2361 27.4224
235 6 1 14.7639 19.2361 29.5776
236 6 1 16 12 28.5
237 6 1 16 16 28.0856
238 6 1 16 16 28.9144
239 6 1 16 20 28.5
240 6 1 17.2361 12.7639 27.4224
241 6 1 17.2361 12.7639 29.5776
242 6 1 17.2361 19.2361 27.4224
243 6 1 17.2361 19.2361 29.5776
244 6 1 18 14.7639 27.2621
245 6 1 18 14.7639 29.7379
246 6 1 18 17.2361 27.2621
247 6 1 18 17.2361 29.7379
248 6 1 19.2361 14 27.8202
249 6 1 19.2361 14 29.1798
250 6 1 19.2361 18 27.8202
251 6 1 19.2361 18 29.1798
252 6 1 20 16 28.5
253 7 1 11 13.1029 34.6483
254 7 1 11 13.1029 32.3517
255 7 1 11 8.89708 32.3517
256 7 1 11 8.89708 34.6483
257 7 1 13.1029 14.4026 33.5
258 7 1 13.1029 7.5974 33.5
259 7 1 8.89708 7.5974 33.5
260 7 1 8.89708 14.4026 33.5
261 7 1 14.4026 11 34.6234
262 7 1 7.5974 11 34.6234
263 7 1 7.5974 11 32.3766
264 7 1 14.4026 11 32.3766
265 7 1 7 11 33.5
266 7 1 7.76393 9 32.8202
267 7 1 7.76393 9 34.1798
268 7 1 7.76393 13 32.8202
269 7 1 7.76393 13 34.1798
270 7 1 9 9.76393 32.2621
271 7 1 9 9.76393 34.7379
272 7 1 9 12.2361 32.2621
273 7 1 9 12.2361 34.7379
274 7 1 9.76393 7.76393 32.4224
275 7 1 9.76393 7.76393 34.5776
276 7 1 9.76393 14.2361 32.4224
277 7 1 9.76393 14.2361 34.5776
278 7 1 11 7 33.5
279 7 1 11 11 33.0856
280 7 1 11 11 33.9144
281 7 1 11 15 33.5
282 7 1 12.2361 7.76393 32.4224
283 7 1 12.2361 7.76393 34.5776
284 7 1 12.2361 14.2361 32.4224
285 7 1 12.2361 14.2361 34.5776
286 7 1 13 9.76393 32.2621
287 7 1 13 9.76393 34.7379
288 7 1 13 12.2361 32.2621
289 7 1 13 12.2361 34.7379
290 7 1 14.2361 9 32.8202
291 7 1 14.2361 9 34.1798
292 7 1 14.2361 13 32.8202
293 7 1 14.2361 13 34.1798
294 7 1 15 11 33.5
295 8 1 11 23.1029 34.6483
296 8 1 11 23.1029 32.3517
297 8 1 11 18.8971 32.3517
298 8 1 11 18.8971 34.6483
299 8 1 13.1029 24.4026 33.5
300 8 1 13.1029 17.5974 33.5
301 8 1 8.89708 17.5974 33.5
302 8 1 8.89708 24.4026 33.5
303 8 1 14.4026 21 34.6234
304 8 1 7.5974 21 34.6234
305 8 1 7.5974 21 32.3766
306 8 1 14.4026 21 32.3766
307 8 1 7 21 33.5
308 8 1 7.76393 19 32.8202
309 8 1 7.76393 19 34.1798
310 8 1 7.76393 23 32.8202
311 8 1 7.76393 23 34.1798
312 8 1 9 19.7639 32.2621
313 8 1 9 19.7639 34.7379
314 8 1 9 22.2361 32.2621
315 8 1 9 22.2361 34.7379
316 8 1 9.76393 17.7639 32.4224
317 8 1 9.76393 17.7639 34.5776
318 8 1 9.76393 24.2361 32.4224
319 8 1 9.76393 24.2361 34.5776
320 8 1 11 17 33.5
321 8 1 11 21 33.0856
322 8 1 11 21 33.9144
323 8 1 11 25 33.5
324 8 1 12.2361 17.7639 32.4224
325 8 1 12.2361 17.7639 34.5776
326 8 1 12.2361 24.2361 32.4224
327 8 1 12.2361 24.2361 34.5776
328 8 1 13 19.7639 32.2621
329 8 1 13 19.7639 34.7379
330 8 1 13 22.2361 32.2621
331 8 1 13 22.2361 34.7379
332 8 1 14.2361 19 32.8202
333 8 1 14.2361 19 34.1798
334 8 1 14.2361 23 32.8202
335 8 1 14.2361 23 34.1798
336 8 1 15 21 33.5
337 9 1 21 13.1029 34.6483
338 9 1 21 13.1029 32.3517
339 9 1 21 8.89708 32.3517
340 9 1 21 8.89708 34.6483
341 9 1 23.1029 14.4026 33.5
342 9 1 23.1029 7.5974 33.5
343 9 1 18.8971 7.5974 33.5
344 9 1 18.8971 14.4026 33.5
345 9 1 24.4026 11 34.6234
346 9 1 17.5974 11 34.6234
347 9 1 17.5974 11 32.3766
348 9 1 24.4026 11 32.3766
349 9 1 17 11 33.5
350 9 1 17.7639 9 32.8202
351 9 1 17.7639 9 34.1798
352 9 1 17.7639 13 32.8202
353 9 1 17.7639 13 34.1798
354 9 1 19 9.76393 32.2621
355 9 1 19 9.76393 34.7379
356 9 1 19 12.2361 32.2621
357 9 1 19 12.2361 34.7379
358 9 1 19.7639 7.76393 32.4224
359 9 1 19.7639 7.76393 34.5776
360 9 1 19.7639 14.2361 32.4224
361 9 1 19.7639 14.2361 34.5776
362 9 1 21 7 33.5
363 9 1 21 11 33.0856
364 9 1 21 11 33.9144
365 9 1 21 15 33.5
366 9 1 22.2361 7.76393 32.4224
367 9 1 22.2361 7.76393 34.5776
368 9 1 22.2361 14.2361 32.4224
369 9 1 22.2361 14.2361 34.5776
370 9 1 23 9.76393 32.2621
371 9 1 23 9.76393 34.7379
372 9 1 23 12.2361 32.2621
373 9 1 23 12.2361 34.7379
374 9 1 24.2361 9 32.8202
375 9 1 24.2361 9 34.1798
376 9 1 24.2361 13 32.8202
377 9 1 24.2361 13 34.1798
378 9 1 25 11 33.5
379 10 1 21 23.1029 34.6483
380 10 1 21 23.1029 32.3517
381 10 1 21 18.8971 32.3517
382 10 1 21 18.8971 34.6483
383 10 1 23.1029 24.4026 33.5
384 10 1 23.1029 17.5974 33.5
385 10 1 18.8971 17.5974 33.5
386 10 1 18.8971 24.4026 33.5
387 10 1 24.4026 21 34.6234
388 10 1 17.5974 21 34.6234
389 10 1 17.5974 21 32.3766
390 10 1 24.4026 21 32.3766
391 10 1 17 21 33.5
392 10 1 17.7639 19 32.8202
393 10 1 17.7639 19 34.1798
394 10 1 17.7639 23 32.8202
395 10 1 17.7639 23 34.1798
396 10 1 19 19.7639 32.2621
397 10 1 19 19.7639 34.7379
398 10 1 19 22.2361 32.2621
399 10 1 19 22.2361 34.7379
400 10 1 19.7639 17.7639 32.4224
401 10 1 19.7639 17.7639 34.5776
402 10 1 19.7639 24.2361 32.4224
403 10 1 19.7639 24.2361 34.5776
404 10 1 21 17 33.5
405 10 1 21 21 33.0856
406 10 1 21 21 33.9144
407 10 1 21 25 33.5
408 10 1 22.2361 17.7639 32.4224
409 10 1 22.2361 17.7639 34.5776
410 10 1 22.2361 24.2361 32.4224
411 10 1 22.2361 24.2361 34.5776
412 10 1 23 19.7639 32.2621
413 10 1 23 19.7639 34.7379
414 10 1 23 22.2361 32.2621
415 10 1 23 22.2361 34.7379
416 10 1 24.2361 19 32.8202
417 10 1 24.2361 19 34.1798
418 10 1 24.2361 23 32.8202
419 10 1 24.2361 23 34.1798
420 10 1 25 21 33.5

Bonds

1 1 1 21
2 2 1 25
3 3 1 28
4 4 1 33
5 5 1 37
6 6 2 20
7 7 2 24
8 8 2 27
9 9 2 32
10 10 2 36
11 11 3 18
12 12 3 22
13 13 3 27
14 14 3 30
15 15 3 34
16 16 4 19
17 17 4 23
18 18 4 28
19 19 4 31
20 20 4 35
21 21 5 29
22 22 5 32
23 23 5 33
24 24 5 40
25 25 5 41
26 26 6 26
27 27 6 30
28 28 6 31
29 29 6 38
30 30 6 39
31 31 7 14
32 32 7 15
33 33 7 22
34 34 7 23
35 35 7 26
36 36 8 16
37 37 8 17
38 38 8 24
39 39 8 25
40 40 8 29
41 41 9 35
42 42 9 37
43 43 9 39
44 44 9 41
45 45 9 42
46 46 10 13
47 47 10 15
48 48 10 17
49 49 10 19
50 50 10 21
51 51 11 13
52 52 11 14
53 53 11 16
54 54 11 18
55 55 11 20
56 56 12 34
57 57 12 36
58 58 12 38
59 59 12 40
60 60 12 42
61 61 13 14
62 62 13 15
63 63 13 16
64 64 17 13
65 65 15 14
66 66 18 14
67 67 22 14
68 68 15 19
69 69 15 23
70 70 17 16
71 71 20 16
72 72 24 16
73 73 21 17
74 74 17 25
75 75 20 18
76 76 22 18
77 77 27 18
78 78 19 21
79 79 19 23
80 80 19 28
81 81 20 24
82 82 27 20
83 83 21 25
84 84 21 28
85 85 26 22
86 86 30 22
87 87 26 23
88 88 31 23
89 89 29 24
90 90 32 24
91 91 29 25
92 92 33 25
93 93 26 30
94 94 31 26
95 95 27 34
96 96 36 27
97 97 35 28
98 98 37 28
99 99 32 29
100 100 29 33
101 101 30 34
102 102 30 38
103 103 35 31
104 104 39 31
105 105 32 36
106 106 40 32
107 107 37 33
108 108 41 33
109 109 36 34
110 110 38 34
111 111 37 35
112 112 35 39
113 113 40 36
114 114 41 37
115 115 39 38
116 116 42 38
117 117 39 42
118 118 41 40
119 119 42 40
120 120 42 41
121 1 43 63
122 2 43 67
123 3 43 70
124 4 43 75
125 5 43 79
126 6 44 62
127 7 44 66
128 8 44 69
129 9 44 74
130 10 44 78
131 11 45 60
132 12 45 64
133 13 45 69
134 14 45 72
135 15 45 76
136 16 46 61
137 17 46 65
138 18 46 70
139 19 46 73
140 20 46 77
141 21 47 71
142 22 47 74
143 23 47 75
144 24 47 82
145 25 47 83
146 26 48 68
147 27 48 72
148 28 48 73
149 29 48 80
150 30 48 81
151 31 49 56
152 32 49 57
153 33 49 64
154 34 49 65
155 35 49 68
156 36 50 58
157 37 50 59
158 38 50 66
159 39 50 67
160 40 50 71
161 41 51 77
162 42 51 79
163 43 51 81
164 44 51 83
165 45 51 84
166 46 52 55
167 47 52 57
168 48 52 59
169 49 52 61
170 50 52 63
171 51 53 55
172 52 53 56
173 53 53 58
174 54 53 60
175 55 53 62
176 56 54 76
177 57 54 78
178 58 54 80
179 59 54 82
180 60 54 84
181 61 55 56
182 62 55 57
183 63 55 58
184 64 59 55
185 65 57 56
186 66 60 56
187 67 64 56
188 68 57 61
189 69 57 65
190 70 59 58
191 71 62 58
192 72 66 58
193 73 63 59
194 74 59 67
195 75 62 60
196 76 64 60
197 77 69 60
198 78 61 63
199 79 61 65
200 80 61 70
201 81 62 66
202 82 69 62
203 83 63 67
204 84 63 70
205 85 68 64
206 86 72 64
207 87 68 65
208 88 73 65
209 89 71 66
210 90 74 66
211 91 71 67
212 92 75 67
213 93 68 72
214 94 73 68
215 95 69 76
216 96 78 69
217 97 77 70
218 98 79 70
219 99 74 71
220 100 71 75
221 101 72 76
222 102 72 80
223 103 77 73
224 104 81 73
225 105 74 78
226 106 82 74
227 107 79 75
228 108 83 75
229 109 78 76
230 110 80 76
231 111 79 77
232 112 77 81
233 113 82 78
234 114 83 79
235 115 81 80
236 116 84 80
237 117 81 84
238 118 83 82
239 119 84 82
240 120 84 83
241 1 85 105
242 2 85 109
243 3 85 112
244 4 85 117
245 5 85 121
246 6 86 104
247 7 86 108
248 8 86 111
249 9 86 116
250 10 86 120
251 11 87 102
252 12 87 106
253 13 87 111
254 14 87 114
255 15 87 118
256 16 88 103
257 17 88 107
258 18 88 112
259 19 88 115
260 20 88 119
261 21 89 113
262 22 89 116
263 23 89 117
264 24 89 124
265 25 89 125
266 26 90 110
267 27 90 114
268 28 90 115
269 29 90 122
270 30 90 123
271 31 91 98
272 32 91 99
273 33 91 106
274 34 91 107
275 35 91 110
276 36 92 100
277 37 92 101
278 38 92 108
279 39 92 109
280 40 92 113
281 41 93 119
282 42 93 121
283 43 93 123
284 44 93 125
285 45 93 126
286 46 94 97
287 47 94 99
288 48 94 101
289 49 94 103
290 50 94 105
291 51 95 97
292 52 95 98
293 53 95 100
294 54 95 102
295 55 95 104
296 56 96 118
297 57 96 120
298 58 96 122
299 59 96 124
300 60 96 126
301 61 97 98
302 62 97 99
303 63 97 100
304 64 101 97
305 65 99 98
306 66 102 98
307 67 106 98
308 68 99 103
309 69 99 107
310 70 101 100
311 71 104 100
312 72 108 100
313 73 105 101
314 74 101 109
315 75 104 102
316 76 106 102
317 77 111 102
318 78 103 105
319 79 103 107
320 80 103 112
321 81 104 108
322 82 111 104
323 83 105 109
324 84 105 112
325 85 110 106
326 86 114 106
327 87 110 107
328 88 115 107
329 89 113 108
330 90 116 108
331 91 113 109
332 92 117 109
333 93 110 114
334 94 115 110
335 95 111 118
336 96 120 111
337 97 119 112
338 98 121 112
339 99 116 113
340 100 113 117
341 101 114 118
342 102 114 122
343 103 119 115
344 104 123 115
345 105 116 120
346 106 124 116
347 107 121 117
348 108 125 117
349 109 120 118
350 110 122 118
351 111 121 119
352 112 119 123
353 113 124 120
354 114 125 121
355 115 123 122
356 116 126 122
357 117 123 126
358 118 125 124
359 119 126 124
360 120 126 125
361 1 127 147
362 2 127 151
363 3 127 154
364 4 127 159
365 5 127 163
366 6 128 146
367 7 128 150
368 8 128 153
369 9 128 158
370 10 128 162
371 11 129 144
372 12 129 148
373 13 129 153
374 14 129 156
375 15 129 160
376 16 130 145
377 17 130 149
378 18 130 154
379 19 130 157
380 20 130 161
381 21 131 155
382 22 131 158
383 23 131 159
384 24 131 166
385 25 131 167
386 26 132 152
387 27 132 156
388 28 132 157
389 29 132 164
390 30 132 165
391 31 133 140
392 32 133 141
393 33 133 148
394 34 133 149
395 35 133 152
396 36 134 142
397 37 134 143
398 38 134 150
399 39 134 151
400 40 134 155
401 41 135 161
402 42 135 163
403 43 135 165
404 44 135 167
405 45 135 168
406 46 136 139
407 47 136 141
408 48 136 143
409 49 136 145
410 50 136 147
411 51 137 139
412 52 137 140
413 53 137 142
414 54 137 144
415 55 137 146
416 56 138 160
417 57 138 162
418 58 138 164
419 59 138 166
420 60 138 168
421 61 139 140
422 62 139 141
423 63 139 142
424 64 143 139
425 65 141 140
426 66 144 140
427 67 148 140
428 68 141 145
429 69 141 149
430 70 143 142
431 71 146 142
432 72 150 142
433 73 147 143
434 74 143 151
435 75 146 144